        Total DFT energy =     -115.713349665033

 Vector   16  Occ=0.000000D+00  E= 5.701398D-01  Symmetry=a'

 Vector   17  Occ=0.000000D+00  E= 5.734457D-01  Symmetry=a"

 Vector   18  Occ=0.000000D+00  E= 7.843476D-01  Symmetry=a'

 Vector   19  Occ=0.000000D+00  E= 8.570151D-01  Symmetry=a"

@ Step       Energy      Delta E   Gmax     Grms     Xrms     Xmax   Walltime
@ ---- ---------------- -------- -------- -------- -------- -------- --------
@    0    -115.71334967  0.0D+00  0.00775  0.00396  0.00000  0.00000    171.1
        Total DFT energy =     -115.714359624259

 Vector    1  Occ=2.000000D+00  E=-1.913978D+01  Symmetry=a'

 Vector    2  Occ=2.000000D+00  E=-1.022507D+01  Symmetry=a'

 Vector    3  Occ=2.000000D+00  E=-1.008700D+00  Symmetry=a'

 Vector    4  Occ=2.000000D+00  E=-6.787835D-01  Symmetry=a'

 Vector    5  Occ=2.000000D+00  E=-5.010401D-01  Symmetry=a'

 Vector    6  Occ=2.000000D+00  E=-4.335857D-01  Symmetry=a"

 Vector    7  Occ=2.000000D+00  E=-4.183259D-01  Symmetry=a'

 Vector    8  Occ=2.000000D+00  E=-3.313288D-01  Symmetry=a'

 Vector    9  Occ=2.000000D+00  E=-2.647275D-01  Symmetry=a"

 Vector   10  Occ=0.000000D+00  E= 7.573117D-02  Symmetry=a'

 Vector   11  Occ=0.000000D+00  E= 1.304611D-01  Symmetry=a'

 Vector   12  Occ=0.000000D+00  E= 1.665039D-01  Symmetry=a'

 Vector   13  Occ=0.000000D+00  E= 1.747285D-01  Symmetry=a"

 Vector   14  Occ=0.000000D+00  E= 2.032301D-01  Symmetry=a'

 Vector   15  Occ=0.000000D+00  E= 5.318205D-01  Symmetry=a'

 Vector   16  Occ=0.000000D+00  E= 5.668584D-01  Symmetry=a'

 Vector   17  Occ=0.000000D+00  E= 5.766594D-01  Symmetry=a"

 Vector   18  Occ=0.000000D+00  E= 7.888214D-01  Symmetry=a'

 Vector   19  Occ=0.000000D+00  E= 8.491323D-01  Symmetry=a"

        Total DFT energy =   -115.714359624259
@    1    -115.71435962 -1.0D-03  0.00463  0.00142  0.03698  0.08128    351.5
        Total DFT energy =     -115.714400029115

 Vector    1  Occ=2.000000D+00  E=-1.914014D+01  Symmetry=a'

 Vector    2  Occ=2.000000D+00  E=-1.022473D+01  Symmetry=a'

 Vector    3  Occ=2.000000D+00  E=-1.009693D+00  Symmetry=a'

 Vector    4  Occ=2.000000D+00  E=-6.781597D-01  Symmetry=a'

 Vector    5  Occ=2.000000D+00  E=-5.017426D-01  Symmetry=a'

 Vector    6  Occ=2.000000D+00  E=-4.339897D-01  Symmetry=a"

 Vector    7  Occ=2.000000D+00  E=-4.187779D-01  Symmetry=a'

 Vector    8  Occ=2.000000D+00  E=-3.306421D-01  Symmetry=a'

 Vector    9  Occ=2.000000D+00  E=-2.645145D-01  Symmetry=a"

 Vector   10  Occ=0.000000D+00  E= 7.497441D-02  Symmetry=a'

 Vector   11  Occ=0.000000D+00  E= 1.307572D-01  Symmetry=a'

 Vector   12  Occ=0.000000D+00  E= 1.665581D-01  Symmetry=a'

 Vector   13  Occ=0.000000D+00  E= 1.750317D-01  Symmetry=a"

 Vector   14  Occ=0.000000D+00  E= 2.050079D-01  Symmetry=a'

 Vector   15  Occ=0.000000D+00  E= 5.335518D-01  Symmetry=a'

 Vector   16  Occ=0.000000D+00  E= 5.671965D-01  Symmetry=a'

 Vector   17  Occ=0.000000D+00  E= 5.772457D-01  Symmetry=a"

 Vector   18  Occ=0.000000D+00  E= 7.863415D-01  Symmetry=a'

 Vector   19  Occ=0.000000D+00  E= 8.489734D-01  Symmetry=a"

        Total DFT energy =   -115.714400029115
@    2    -115.71440003 -4.0D-05  0.00096  0.00036  0.00240  0.00880    414.4
        Total DFT energy =     -115.714404930970

 Vector    1  Occ=2.000000D+00  E=-1.914006D+01  Symmetry=a'

 Vector    2  Occ=2.000000D+00  E=-1.022469D+01  Symmetry=a'

 Vector    3  Occ=2.000000D+00  E=-1.010462D+00  Symmetry=a'

 Vector    4  Occ=2.000000D+00  E=-6.782312D-01  Symmetry=a'

 Vector    5  Occ=2.000000D+00  E=-5.022707D-01  Symmetry=a'

 Vector    6  Occ=2.000000D+00  E=-4.340876D-01  Symmetry=a"

 Vector    7  Occ=2.000000D+00  E=-4.191472D-01  Symmetry=a'

 Vector    8  Occ=2.000000D+00  E=-3.302742D-01  Symmetry=a'

 Vector    9  Occ=2.000000D+00  E=-2.645012D-01  Symmetry=a"

 Vector   10  Occ=0.000000D+00  E= 7.523634D-02  Symmetry=a'

 Vector   11  Occ=0.000000D+00  E= 1.308121D-01  Symmetry=a'

 Vector   12  Occ=0.000000D+00  E= 1.666921D-01  Symmetry=a'

 Vector   13  Occ=0.000000D+00  E= 1.751476D-01  Symmetry=a"

 Vector   14  Occ=0.000000D+00  E= 2.058378D-01  Symmetry=a'

 Vector   15  Occ=0.000000D+00  E= 5.342121D-01  Symmetry=a'

 Vector   16  Occ=0.000000D+00  E= 5.673011D-01  Symmetry=a'

 Vector   17  Occ=0.000000D+00  E= 5.774025D-01  Symmetry=a"

 Vector   18  Occ=0.000000D+00  E= 7.863898D-01  Symmetry=a'

 Vector   19  Occ=0.000000D+00  E= 8.488760D-01  Symmetry=a"

        Total DFT energy =   -115.714404930970
@    3    -115.71440493 -4.9D-06  0.00009  0.00005  0.00102  0.00249    441.7
        Total DFT energy =     -115.714405148412

                      DFT Final Molecular Orbital Analysis
                      ------------------------------------

 Vector    1  Occ=2.000000D+00  E=-1.914009D+01  Symmetry=a'

 Vector    2  Occ=2.000000D+00  E=-1.022476D+01  Symmetry=a'

 Vector    3  Occ=2.000000D+00  E=-1.010464D+00  Symmetry=a'

 Vector    4  Occ=2.000000D+00  E=-6.782648D-01  Symmetry=a'

 Vector    5  Occ=2.000000D+00  E=-5.023095D-01  Symmetry=a'

 Vector    6  Occ=2.000000D+00  E=-4.340236D-01  Symmetry=a"

 Vector    7  Occ=2.000000D+00  E=-4.191856D-01  Symmetry=a'

 Vector    8  Occ=2.000000D+00  E=-3.302426D-01  Symmetry=a'

 Vector    9  Occ=2.000000D+00  E=-2.645225D-01  Symmetry=a"

 Vector   10  Occ=0.000000D+00  E= 7.523857D-02  Symmetry=a'

 Vector   11  Occ=0.000000D+00  E= 1.307368D-01  Symmetry=a'

 Vector   12  Occ=0.000000D+00  E= 1.666930D-01  Symmetry=a'

 Vector   13  Occ=0.000000D+00  E= 1.751455D-01  Symmetry=a"

 Vector   14  Occ=0.000000D+00  E= 2.058811D-01  Symmetry=a'

 Vector   15  Occ=0.000000D+00  E= 5.342183D-01  Symmetry=a'

 Vector   16  Occ=0.000000D+00  E= 5.672510D-01  Symmetry=a'

 Vector   17  Occ=0.000000D+00  E= 5.774118D-01  Symmetry=a"

 Vector   18  Occ=0.000000D+00  E= 7.863348D-01  Symmetry=a'

 Vector   19  Occ=0.000000D+00  E= 8.487713D-01  Symmetry=a"

    Multipole analysis of the density
    ---------------------------------

    L   x y z        total         alpha         beta         nuclear
    -   - - -        -----         -----         ----         -------
    0   0 0 0      0.000000     -9.000000     -9.000000     18.000000

    1   1 0 0     -0.590127     -0.265675     -0.265675     -0.058777
    1   0 1 0     -0.309735     -0.269639     -0.269639      0.229543
    1   0 0 1      0.000000      0.000000      0.000000      0.000000

    2   2 0 0     -8.822581     -8.500185     -8.500185      8.177790
    2   1 1 0     -1.646330     -0.377108     -0.377108     -0.892114
    2   1 0 1      0.000000      0.000000      0.000000      0.000000
    2   0 2 0     -9.456311    -25.652312    -25.652312     41.848313
    2   0 1 1      0.000000      0.000000      0.000000      0.000000

        Total DFT energy =   -115.714405148412
@    4    -115.71440515 -2.2D-07  0.00004  0.00002  0.00049  0.00128    447.9
@    4    -115.71440515 -2.2D-07  0.00004  0.00002  0.00049  0.00128    447.9

 Output coordinates in angstroms (scale by  1.889725989 to convert to a.u.)

 No.       Tag          Charge          X              Y              Z
 ---- ---------------- ---------- -------------- -------------- --------------
   1 C                    6.0000    -0.00374088    -0.65590252     0.00000000
   2 O                    8.0000     0.10092628     0.75889248     0.00000000
   3 H                    1.0000    -0.51788454    -1.04404301    -0.89319377
   4 H                    1.0000    -0.51788454    -1.04404301     0.89319377
   5 H                    1.0000     1.01756700    -1.04644888     0.00000000
   6 H                    1.0000    -0.79786613     1.12027891     0.00000000

        Total DFT energy =   -115.714405148412
        Total DFT energy =     -115.714374350573
        Total DFT energy =     -115.714374903067
        Total DFT energy =     -115.714380946901
        Total DFT energy =     -115.714380651203
        Total DFT energy =     -115.714377018188
        Total DFT energy =     -115.714377018521
        Total DFT energy =     -115.714379092602
        Total DFT energy =     -115.714378782291
        Total DFT energy =     -115.714384035962
        Total DFT energy =     -115.714383240877
        Total DFT energy =     -115.714402817854
        Total DFT energy =     -115.714402817926
        Total DFT energy =     -115.714399623710
        Total DFT energy =     -115.714399698403
        Total DFT energy =     -115.714400555783
        Total DFT energy =     -115.714400746223
        Total DFT energy =     -115.714393519729
        Total DFT energy =     -115.714393343542
        Total DFT energy =     -115.714389678180
        Total DFT energy =     -115.714389513055
        Total DFT energy =     -115.714400376145
        Total DFT energy =     -115.714400232764
        Total DFT energy =     -115.714402695969
        Total DFT energy =     -115.714402695868
        Total DFT energy =     -115.714383375970
        Total DFT energy =     -115.714383193806
        Total DFT energy =     -115.714398442207
        Total DFT energy =     -115.714399287501
        Total DFT energy =     -115.714404970039
        Total DFT energy =     -115.714404970138
 Zero-Point correction to Energy  =   32.299 kcal/mol  (  0.051471 au)
 Thermal correction to Energy     =   34.356 kcal/mol  (  0.054749 au)
 Thermal correction to Enthalpy   =   34.948 kcal/mol  (  0.055693 au)
 Total Entropy                    =   56.664 cal/mol-K
  - Translational                =   36.308 cal/mol-K (mol. weight =  32.0262)
  - Rotational                   =   18.988 cal/mol-K (symmetry #  =        1)
  - Vibrational                  =    1.368 cal/mol-K
  - Translational                  =    2.979 cal/mol-K
  - Rotational                     =    2.979 cal/mol-K
  - Vibrational                    =    2.678 cal/mol-K
 P.Frequency        0.00        0.00        0.00        0.00        0.00        0.00
 P.Frequency      355.44     1068.05     1099.18     1185.28     1400.52     1512.47
 P.Frequency     1525.93     1541.84     2993.45     3036.46     3131.12     3754.26

 Normal Eigenvalue ||           Projected Infra Red Intensities
 Mode   [cm**-1]  || [atomic units] [(debye/angs)**2] [(KM/mol)] [arbitrary]
 ------ ---------- || -------------- ----------------- ---------- -----------
   1        0.000 ||    0.002834           0.065         2.763       0.947
   2        0.000 ||    0.021865           0.504        21.315       7.305
   3        0.000 ||    0.000393           0.009         0.383       0.131
   4        0.000 ||    0.003360           0.078         3.276       1.123
   5        0.000 ||    0.002582           0.060         2.517       0.863
   6        0.000 ||    0.000110           0.003         0.108       0.037
   7      355.445 ||    0.134160           3.095       130.786      44.820
   8     1068.049 ||    0.122258           2.821       119.183      40.844
   9     1099.180 ||    0.002159           0.050         2.105       0.721
  10     1185.275 ||    0.000539           0.012         0.525       0.180
  11     1400.515 ||    0.028693           0.662        27.972       9.586
  12     1512.473 ||    0.007403           0.171         7.217       2.473
  13     1525.935 ||    0.001887           0.044         1.840       0.631
  14     1541.842 ||    0.004357           0.101         4.248       1.456
  15     2993.453 ||    0.070956           1.637        69.171      23.705
  16     3036.463 ||    0.088471           2.041        86.246      29.556
  17     3131.118 ||    0.035074           0.809        34.191      11.717
  18     3754.261 ||    0.011693           0.270        11.399       3.906
 ----------------------------------------------------------------------------

 Total times  cpu:      122.0s     wall:     1245.5s
